title                   = Protein-ligand complex NPT equilibration
define                  = -DPOSRES        ; Position restraints on protein and ligand

; Run parameters
integrator              = md              ; Leap-frog integrator
nsteps                  = 500000          ; 1 ns
dt                      = 0.002           ; 2 femtoseconds

; Output control
nstenergy               = 500             ; Save energies every 1.0 ps
nstlog                  = 500             ; Log file update every 1.0 ps
nstxout-compressed      = 500             ; Save coordinates every 1.0 ps

; Bond parameters
continuation            = yes             ; Continuing from NVT
constraint_algorithm    = lincs
constraints             = h-bonds
lincs_iter              = 1
lincs_order             = 4

; Neighbor searching
cutoff-scheme           = Verlet
nstlist                 = 20
rlist                   = 1.2

; van der Waals
vdwtype                 = cutoff
vdw-modifier            = force-switch
rvdw-switch             = 1.0
rvdw                    = 1.2

; Electrostatics
coulombtype             = PME
rcoulomb                = 1.2
pme_order               = 4
fourierspacing          = 0.16

; Temperature coupling
tcoupl                  = V-rescale
tc-grps                 = Protein Water_and_ions
tau_t                   = 0.1  0.1
ref_t                   = 298  298

; Pressure coupling
pcoupl                  = Parrinello-Rahman
pcoupltype              = isotropic
tau_p                   = 2.0
ref_p                   = 1.0
compressibility         = 4.5e-5
refcoord_scaling        = com

; Periodic boundary conditions
pbc                     = xyz

; Dispersion correction
DispCorr                = EnerPres

; Velocity generation
gen_vel                 = no              ; Do not generate velocities
